
    -----------------------------------------------------------------------
          Psi4: An Open-Source Ab Initio Electronic Structure Package
                               Psi4 1.2.1 release

                         Git: Rev {} zzzzzzz 


    R. M. Parrish, L. A. Burns, D. G. A. Smith, A. C. Simmonett,
    A. E. DePrince III, E. G. Hohenstein, U. Bozkaya, A. Yu. Sokolov,
    R. Di Remigio, R. M. Richard, J. F. Gonthier, A. M. James,
    H. R. McAlexander, A. Kumar, M. Saitow, X. Wang, B. P. Pritchard,
    P. Verma, H. F. Schaefer III, K. Patkowski, R. A. King, E. F. Valeev,
    F. A. Evangelista, J. M. Turney, T. D. Crawford, and C. D. Sherrill,
    J. Chem. Theory Comput. 13(7) pp 3185--3197 (2017).
    (doi: 10.1021/acs.jctc.7b00174)


                         Additional Contributions by
    P. Kraus, H. Kruse, M. H. Lechner, M. C. Schieber, and R. A. Shaw

    -----------------------------------------------------------------------


    Psi4 started on: Friday, 02 August 2019 12:19PM

    Process ID: 787
    Host:       globula-Inspiron-7580
    PSIDATADIR: /home/globulion/ins/psi4-1.2.1/share/psi4
    Memory:     500.0 MiB
    Threads:    1
    
  ==> Input File <==

--------------------------------------------------------------------------
#!/usr/bin/python3
import tutor.psithon.util
from tutor.project_1.population import atomic_charges, Loc
import numpy
numpy.set_printoptions(precision=4, linewidth=200, suppress=True)

mol = tutor.psithon.util.psi_molecule_from_file('water.xyz')

set {
 scf_type df
 basis 6-31++G(d,p)
 e_convergence 1e-8
}

e, w = energy('scf', molecule=mol, return_wfn=True)

# atomic charges from SCF density
for kappa in numpy.linspace(0.0, 0.5, 20):
    q = atomic_charges(w, kappa)
    print(" kappa = %5.2f   q(O) = %14.4f   q(H) = %14.4f" % (kappa, q[0], q[1]))

# LMO's and distributed quadrupole moments
loc=  Loc(w)
print(loc)
--------------------------------------------------------------------------

*** tstart() called on globula-Inspiron-7580
*** at Fri Aug  2 12:19:12 2019

   => Loading Basis Set <=

    Name: 6-31++G(D,P)
    Role: ORBITAL
    Keyword: BASIS
    atoms 1   entry O          line   153 file /home/globulion/ins/psi4-1.2.1/share/psi4/basis/6-31ppg_d_p_.gbs 
    atoms 2-3 entry H          line    46 file /home/globulion/ins/psi4-1.2.1/share/psi4/basis/6-31ppg_d_p_.gbs 


         ---------------------------------------------------------
                                   SCF
            by Justin Turney, Rob Parrish, Andy Simmonett
                             and Daniel Smith
                              RHF Reference
                        1 Threads,    500 MiB Core
         ---------------------------------------------------------

  ==> Geometry <==

    Molecular point group: c1
    Full point group: C1

    Geometry (in Angstrom), charge = 0, multiplicity = 1:

       Center              X                  Y                   Z               Mass       
    ------------   -----------------  -----------------  -----------------  -----------------
         O           -4.890770000000     2.729320000000    -0.006650000000    15.994914619560
         H           -3.922880000000     2.685540000000     0.008810000000     1.007825032070
         H           -5.169620000000     1.854240000000     0.302280000000     1.007825032070

  Running in c1 symmetry.

  Rotational constants: A =     15.58333  B =      0.03043  C =      0.03037 [cm^-1]
  Rotational constants: A = 467176.53879  B =    912.32128  C =    910.60432 [MHz]
  Nuclear repulsion =    9.084253577139670

  Charge       = 0
  Multiplicity = 1
  Electrons    = 10
  Nalpha       = 5
  Nbeta        = 5

  ==> Algorithm <==

  SCF Algorithm Type is DF.
  DIIS enabled.
  MOM disabled.
  Fractional occupation disabled.
  Guess Type is SAD.
  Energy threshold   = 1.00e-08
  Density threshold  = 1.00e-06
  Integral threshold = 0.00e+00

  ==> Primary Basis <==

  Basis Set: 6-31++G(D,P)
    Blend: 6-31++G(D,P)
    Number of shells: 16
    Number of basis function: 31
    Number of Cartesian functions: 31
    Spherical Harmonics?: false
    Max angular momentum: 2

   => Loading Basis Set <=

    Name: (6-31++G(D,P) AUX)
    Role: JKFIT
    Keyword: DF_BASIS_SCF
    atoms 1   entry O          line   270 file /home/globulion/ins/psi4-1.2.1/share/psi4/basis/aug-cc-pvdz-jkfit.gbs 
    atoms 2-3 entry H          line    70 file /home/globulion/ins/psi4-1.2.1/share/psi4/basis/aug-cc-pvdz-jkfit.gbs 

  ==> Pre-Iterations <==

   -------------------------------------------------------
    Irrep   Nso     Nmo     Nalpha   Nbeta   Ndocc  Nsocc
   -------------------------------------------------------
     A         31      31       0       0       0       0
   -------------------------------------------------------
    Total      31      31       5       5       5       0
   -------------------------------------------------------

  ==> Integral Setup <==

  ==> DiskDFJK: Density-Fitted J/K Matrices <==

    J tasked:                  Yes
    K tasked:                  Yes
    wK tasked:                  No
    OpenMP threads:              1
    Integrals threads:           1
    Memory (MB):               375
    Algorithm:                Core
    Integral Cache:           NONE
    Schwarz Cutoff:          1E-12
    Fitting Condition:       1E-12

   => Auxiliary Basis Set <=

  Basis Set: (6-31++G(D,P) AUX)
    Blend: AUG-CC-PVDZ-JKFIT
    Number of shells: 52
    Number of basis function: 171
    Number of Cartesian functions: 171
    Spherical Harmonics?: false
    Max angular momentum: 3

  Minimum eigenvalue in the overlap matrix is 1.2729056023E-02.
  Using Symmetric Orthogonalization.

  SCF Guess: Superposition of Atomic Densities via on-the-fly atomic UHF.

  ==> Iterations <==

                           Total Energy        Delta E     RMS |[F,P]|

   @DF-RHF iter   0:   -75.90931379927872   -7.59093e+01   5.37058e-02 
   @DF-RHF iter   1:   -76.00138448083997   -9.20707e-02   8.19745e-03 
   @DF-RHF iter   2:   -76.02240871980331   -2.10242e-02   4.43366e-03 DIIS
   @DF-RHF iter   3:   -76.02920152192306   -6.79280e-03   7.46203e-04 DIIS
   @DF-RHF iter   4:   -76.02967471354985   -4.73192e-04   2.31438e-04 DIIS
   @DF-RHF iter   5:   -76.02975620844035   -8.14949e-05   5.63064e-05 DIIS
   @DF-RHF iter   6:   -76.02976163412124   -5.42568e-06   7.64758e-06 DIIS
   @DF-RHF iter   7:   -76.02976170700896   -7.28877e-08   1.23644e-06 DIIS
   @DF-RHF iter   8:   -76.02976170941184   -2.40289e-09   3.07931e-07 DIIS

  ==> Post-Iterations <==

    Orbital Energies [Eh]
    ---------------------

    Doubly Occupied:                                                      

       1A    -20.584757     2A     -1.351086     3A     -0.712641  
       4A     -0.582458     5A     -0.508583  

    Virtual:                                                              

       6A      0.041516     7A      0.071873     8A      0.240266  
       9A      0.252447    10A      0.279633    11A      0.314502  
      12A      0.352749    13A      0.405418    14A      1.165656  
      15A      1.265427    16A      1.401779    17A      1.404425  
      18A      1.431031    19A      1.604952    20A      1.789758  
      21A      1.816029    22A      1.912145    23A      2.559693  
      24A      2.567350    25A      2.844118    26A      2.949971  
      27A      2.979232    28A      3.351186    29A      3.724878  
      30A      3.952250    31A      4.427802  

    Final Occupation by Irrep:
              A 
    DOCC [     5 ]

  Energy converged.

  @DF-RHF Final Energy:   -76.02976170941184

   => Energetics <=

    Nuclear Repulsion Energy =              9.0842535771396697
    One-Electron Energy =                -122.7489809821934017
    Two-Electron Energy =                  37.6349656956418812
    Total Energy =                        -76.0297617094118436



Properties will be evaluated at   0.000000,   0.000000,   0.000000 [a0]

Properties computed using the SCF density matrix

  Nuclear Dipole Moment: [e a0]
     X:   -91.1201      Y:    49.8403      Z:     0.4873

  Electronic Dipole Moment: [e a0]
     X:    91.6440      Y:   -50.5390      Z:    -0.2407

  Dipole Moment: [e a0]
     X:     0.5239      Y:    -0.6987      Z:     0.2467     Total:     0.9075

  Dipole Moment: [D]
     X:     1.3317      Y:    -1.7759      Z:     0.6270     Total:     2.3066


*** tstop() called on globula-Inspiron-7580 at Fri Aug  2 12:19:12 2019
Module time:
	user time   =       0.32 seconds =       0.01 minutes
	system time =       0.01 seconds =       0.00 minutes
	total time  =          0 seconds =       0.00 minutes
Total time:
	user time   =       0.32 seconds =       0.01 minutes
	system time =       0.01 seconds =       0.00 minutes
	total time  =          0 seconds =       0.00 minutes
  ==> Boys Localizer <==

    Convergence =   1.000E-12
    Maxiter     =         200

    Iteration                   Metric       Residual
    @Boys    0   5.4783467341722792E+02              -
    @Boys    1   5.4974635082386942E+02   3.489515E-03
    @Boys    2   5.5016902008742113E+02   7.688441E-04
    @Boys    3   5.5017635802683958E+02   1.333761E-05
    @Boys    4   5.5017809123727636E+02   3.150282E-06
    @Boys    5   5.5017828237886772E+02   3.474177E-07
    @Boys    6   5.5017830262097289E+02   3.679190E-08
    @Boys    7   5.5017830572351420E+02   5.639156E-09
    @Boys    8   5.5017830615392427E+02   7.823101E-10
    @Boys    9   5.5017830624356327E+02   1.629272E-10
    @Boys   10   5.5017830625617796E+02   2.292837E-11
    @Boys   11   5.5017830625868532E+02   4.557365E-12
    @Boys   12   5.5017830625915065E+02   8.457626E-13

    Boys Localizer converged.

  ==> Boys Localizer <==

    Convergence =   1.000E-12
    Maxiter     =         200

    Iteration                   Metric       Residual
    @Boys    0   5.4783467341722792E+02              -
    @Boys    1   5.4974635082386942E+02   3.489515E-03
    @Boys    2   5.5016902008742113E+02   7.688441E-04
    @Boys    3   5.5017635802683958E+02   1.333761E-05
    @Boys    4   5.5017809123727636E+02   3.150282E-06
    @Boys    5   5.5017828237886772E+02   3.474177E-07
    @Boys    6   5.5017830262097289E+02   3.679190E-08
    @Boys    7   5.5017830572351420E+02   5.639156E-09
    @Boys    8   5.5017830615392427E+02   7.823101E-10
    @Boys    9   5.5017830624356327E+02   1.629272E-10
    @Boys   10   5.5017830625617796E+02   2.292837E-11
    @Boys   11   5.5017830625868532E+02   4.557365E-12
    @Boys   12   5.5017830625915065E+02   8.457626E-13

    Boys Localizer converged.


    Psi4 stopped on: Friday, 02 August 2019 12:19PM
    Psi4 wall time for execution: 0:00:00.43

*** Psi4 exiting successfully. Buy a developer a beer!
