
    -----------------------------------------------------------------------
          Psi4: An Open-Source Ab Initio Electronic Structure Package
                               Psi4 1.2.1 release

                         Git: Rev {} zzzzzzz 


    R. M. Parrish, L. A. Burns, D. G. A. Smith, A. C. Simmonett,
    A. E. DePrince III, E. G. Hohenstein, U. Bozkaya, A. Yu. Sokolov,
    R. Di Remigio, R. M. Richard, J. F. Gonthier, A. M. James,
    H. R. McAlexander, A. Kumar, M. Saitow, X. Wang, B. P. Pritchard,
    P. Verma, H. F. Schaefer III, K. Patkowski, R. A. King, E. F. Valeev,
    F. A. Evangelista, J. M. Turney, T. D. Crawford, and C. D. Sherrill,
    J. Chem. Theory Comput. 13(7) pp 3185--3197 (2017).
    (doi: 10.1021/acs.jctc.7b00174)


                         Additional Contributions by
    P. Kraus, H. Kruse, M. H. Lechner, M. C. Schieber, and R. A. Shaw

    -----------------------------------------------------------------------


    Psi4 started on: Friday, 02 August 2019 12:21PM

    Process ID: 955
    Host:       globula-Inspiron-7580
    PSIDATADIR: /home/globulion/ins/psi4-1.2.1/share/psi4
    Memory:     500.0 MiB
    Threads:    1
    
  ==> Input File <==

--------------------------------------------------------------------------
#!/usr/bin/python3
import tutor.psithon.util
from tutor.project_2.cis import CIS

mol = tutor.psithon.util.psi_molecule_from_file('water.xyz')

set {
 scf_type df
 basis 6-31G*
 e_convergence 1e-8
 reference uhf
}

cis = CIS.create(mol, verbose=True)
cis.run()
--------------------------------------------------------------------------

*** tstart() called on globula-Inspiron-7580
*** at Fri Aug  2 12:21:34 2019

   => Loading Basis Set <=

    Name: 6-31G*
    Role: ORBITAL
    Keyword: BASIS
    atoms 1   entry O          line   145 file /home/globulion/ins/psi4-1.2.1/share/psi4/basis/6-31gs.gbs 
    atoms 2-3 entry H          line    44 file /home/globulion/ins/psi4-1.2.1/share/psi4/basis/6-31gs.gbs 


         ---------------------------------------------------------
                                   SCF
            by Justin Turney, Rob Parrish, Andy Simmonett
                             and Daniel Smith
                              RHF Reference
                        1 Threads,    500 MiB Core
         ---------------------------------------------------------

  ==> Geometry <==

    Molecular point group: c1
    Full point group: C1

    Geometry (in Angstrom), charge = 0, multiplicity = 1:

       Center              X                  Y                   Z               Mass       
    ------------   -----------------  -----------------  -----------------  -----------------
         O           -4.890770000000     2.729320000000    -0.006650000000    15.994914619560
         H           -3.922880000000     2.685540000000     0.008810000000     1.007825032070
         H           -5.169620000000     1.854240000000     0.302280000000     1.007825032070

  Running in c1 symmetry.

  Rotational constants: A =     15.58333  B =      0.03043  C =      0.03037 [cm^-1]
  Rotational constants: A = 467176.53879  B =    912.32128  C =    910.60432 [MHz]
  Nuclear repulsion =    9.084253577139670

  Charge       = 0
  Multiplicity = 1
  Electrons    = 10
  Nalpha       = 5
  Nbeta        = 5

  ==> Algorithm <==

  SCF Algorithm Type is DF.
  DIIS enabled.
  MOM disabled.
  Fractional occupation disabled.
  Guess Type is SAD.
  Energy threshold   = 1.00e-08
  Density threshold  = 1.00e-06
  Integral threshold = 0.00e+00

  ==> Primary Basis <==

  Basis Set: 6-31G*
    Blend: 6-31G*
    Number of shells: 10
    Number of basis function: 19
    Number of Cartesian functions: 19
    Spherical Harmonics?: false
    Max angular momentum: 2

   => Loading Basis Set <=

    Name: (6-31G* AUX)
    Role: JKFIT
    Keyword: DF_BASIS_SCF
    atoms 1   entry O          line   221 file /home/globulion/ins/psi4-1.2.1/share/psi4/basis/cc-pvdz-jkfit.gbs 
    atoms 2-3 entry H          line    51 file /home/globulion/ins/psi4-1.2.1/share/psi4/basis/cc-pvdz-jkfit.gbs 

  ==> Pre-Iterations <==

   -------------------------------------------------------
    Irrep   Nso     Nmo     Nalpha   Nbeta   Ndocc  Nsocc
   -------------------------------------------------------
     A         19      19       0       0       0       0
   -------------------------------------------------------
    Total      19      19       5       5       5       0
   -------------------------------------------------------

  ==> Integral Setup <==

  ==> DiskDFJK: Density-Fitted J/K Matrices <==

    J tasked:                  Yes
    K tasked:                  Yes
    wK tasked:                  No
    OpenMP threads:              1
    Integrals threads:           1
    Memory (MB):               375
    Algorithm:                Core
    Integral Cache:           NONE
    Schwarz Cutoff:          1E-12
    Fitting Condition:       1E-12

   => Auxiliary Basis Set <=

  Basis Set: (6-31G* AUX)
    Blend: CC-PVDZ-JKFIT
    Number of shells: 42
    Number of basis function: 131
    Number of Cartesian functions: 131
    Spherical Harmonics?: false
    Max angular momentum: 3

  Minimum eigenvalue in the overlap matrix is 2.2707177563E-02.
  Using Symmetric Orthogonalization.

  SCF Guess: Superposition of Atomic Densities via on-the-fly atomic UHF.

  ==> Iterations <==

                           Total Energy        Delta E     RMS |[F,P]|

   @DF-RHF iter   0:   -76.04305360095556   -7.60431e+01   8.73546e-02 
   @DF-RHF iter   1:   -75.95967122371913    8.33824e-02   1.66014e-02 
   @DF-RHF iter   2:   -75.99961521282967   -3.99440e-02   8.54083e-03 DIIS
   @DF-RHF iter   3:   -76.00890118785246   -9.28598e-03   1.60778e-03 DIIS
   @DF-RHF iter   4:   -76.00967493561453   -7.73748e-04   4.18077e-04 DIIS
   @DF-RHF iter   5:   -76.00974265081277   -6.77152e-05   7.03851e-05 DIIS
   @DF-RHF iter   6:   -76.00974488107707   -2.23026e-06   1.08370e-05 DIIS
   @DF-RHF iter   7:   -76.00974493578535   -5.47083e-08   2.38218e-06 DIIS
   @DF-RHF iter   8:   -76.00974493881364   -3.02829e-09   4.65510e-07 DIIS

  ==> Post-Iterations <==

    Orbital Energies [Eh]
    ---------------------

    Doubly Occupied:                                                      

       1A    -20.562988     2A     -1.336243     3A     -0.699527  
       4A     -0.569942     5A     -0.497329  

    Virtual:                                                              

       6A      0.208111     7A      0.300891     8A      1.015130  
       9A      1.128094    10A      1.162630    11A      1.167694  
      12A      1.376729    13A      1.435515    14A      2.022205  
      15A      2.037569    16A      2.069929    17A      2.607846  
      18A      2.926132    19A      3.963438  

    Final Occupation by Irrep:
              A 
    DOCC [     5 ]

  Energy converged.

  @DF-RHF Final Energy:   -76.00974493881364

   => Energetics <=

    Nuclear Repulsion Energy =              9.0842535771396697
    One-Electron Energy =                -122.8559347163140814
    Two-Electron Energy =                  37.7619362003607648
    Total Energy =                        -76.0097449388136397



Properties will be evaluated at   0.000000,   0.000000,   0.000000 [a0]

Properties computed using the SCF density matrix

  Nuclear Dipole Moment: [e a0]
     X:   -91.1201      Y:    49.8403      Z:     0.4873

  Electronic Dipole Moment: [e a0]
     X:    91.6299      Y:   -50.5202      Z:    -0.2473

  Dipole Moment: [e a0]
     X:     0.5098      Y:    -0.6799      Z:     0.2400     Total:     0.8830

  Dipole Moment: [D]
     X:     1.2958      Y:    -1.7281      Z:     0.6101     Total:     2.2445


*** tstop() called on globula-Inspiron-7580 at Fri Aug  2 12:21:34 2019
Module time:
	user time   =       0.28 seconds =       0.00 minutes
	system time =       0.00 seconds =       0.00 minutes
	total time  =          0 seconds =       0.00 minutes
Total time:
	user time   =       0.28 seconds =       0.00 minutes
	system time =       0.00 seconds =       0.00 minutes
	total time  =          0 seconds =       0.00 minutes

    Psi4 stopped on: Friday, 02 August 2019 12:21PM
    Psi4 wall time for execution: 0:00:00.39

*** Psi4 exiting successfully. Buy a developer a beer!
